#!/bin/bash
#


############# VARIABLES
USERFILEPATH=`whoami`
DIR=`pwd`
HOST=`ident_host | awk '{print $1}'`
HOSTIP=`ident_host | awk '{print $2}'`
#default settings: these may be changed by some arguments
CSVFILEFILEPATH="PES-summary.csv"
MERGEAPPENDIX="merge_info_PES-summary.txt"
CSVDELIM=";"
DECISEP="."
SCRIPTDIR=`dirname $(readlink -f ${0})`
DEPTH=1 #depth of search -1=all 0=current n=n subfolders
VARFILE=all # given output-file for analysis ( Default: all )
TEMPDATA=$(head /dev/urandom | tr -dc A-Za-z0-9 | head -c 13 ; echo ''); TEMPDATA=temp-getPES-$TEMPDATA
TEMPDATA2=temp-$TEMPDATA

######################################################
#           FUNCTIONS START
######################################################

function prnt_error {
	echo -e  "\033[0;31m ERROR ! stopping script \033[0m "
}

function prnt_warning {
	echo -e "\033[1;33m WARNING ! \033[0m "
}

function prnt_ok {
	echo -e -n "\033[0;32m OK: \033[0m "
}

function format_strings { # formats stuff like the full path to the file, the dir in which the file is stored and the filename
	FILENAME=`echo " $FILEPATH" | sed -e 's@\/@ @g' | awk '{print $NF}'`
	FILENAMFORMATTED=`echo "$FILENAME" | cut -c -24 `
	FILEPATHFORMATTED=`echo "$FILEPATH" | rev | cut -c -24 | rev`
	FULLPATH=$FILEPATH
}

function ident_prog {

	PROGID=0
	PROGNAME="none"

	FILEHEAD=`head -5 $FILEPATH`

	IDENTORCA=`echo "$FILEHEAD" | grep -c " * O   R   C   A *"`
	IDENTGAUSSIAN=`echo "$FILEHEAD" | grep -c " Entering Gaussian System, Link 0"`
	IDENTXTB=`echo "$FILEHEAD" | grep -c "    |                           x T B                           |    "`
	IDENTCREST=`echo "$FILEHEAD" | grep -c "       |                 C R E S T                  |"`

	IDENTSTRING=`echo "$IDENTORCA $IDENTGAUSSIAN $IDENTXTB $IDENTCREST" | sed -e 's@ @@g'`

	case "$IDENTSTRING" in
		        1000) PROGNAME="ORCA" ;;
			        0100) PROGNAME="Gaussian" ;;
				        0010) PROGNAME="xTB" ;;
					        0001) PROGNAME="crest" ;;
						        *) PROGNAME="unknown" ;;
						esac



						#PROGNAME="$IDENTSTRING"

					}

					function checkrevDSDPBEP86D4 {
						unset check1 check2 check3 
						check1=$(grep "SCF SETTINGS" -A30 $FILEPATH)
						check2=$(grep "RI-MP2 ENERGY" -A30 $FILEPATH)
						check3=$(grep "DFTD4" -A20 $FILEPATH)

						if [[ -z $check1 || -z $check2 || -z $check3 ]] ; then return; fi 
						if ! [[ $(echo "$check1" | grep -m1 -n -E "^[ \t]*Exchange Functional    Exchange        .... PBE$" | cut -f1 -d':') =~ ^[0-9]+$ ]] ; then return; fi
						if ! [[ $(echo "$check1" | grep -m1 -n -E "^[ \t]*Correlation Functional Correlation     .... P86$" | cut -f1 -d':') =~ ^[0-9]+$ ]] ; then return; fi
						if ! [[ $(echo "$check1" | grep -m1 -n -E "^[ \t]*Fraction HF Exchange ScalHFX         ....  0.690*$" | cut -f1 -d':') =~ ^[0-9]+$ ]] ; then return; fi
						if ! [[ $(echo "$check1" | grep -m1 -n -E "^[ \t]*Scaling of DF-GGA-C  ScalDFC         ....  0.4210*$" | cut -f1 -d':') =~ ^[0-9]+$ ]] ; then return; fi
						if ! [[ $(echo "$check2" | grep -m1 -n -E "^[ \t]*Scaling for aa/bb pairs                   ...   6.360*e-02$" | cut -f1 -d':') =~ ^[0-9]+$ ]] ; then return; fi
						if ! [[ $(echo "$check2" | grep -m1 -n -E "^[ \t]*Scaling for ab pairs                      ...   5.9220*e-01$" | cut -f1 -d':') =~ ^[0-9]+$ ]] ; then return; fi
						if ! [[ $(echo "$check3" | grep -m1 -n "A user input s6-coefficient scaling factor has been recognized" | cut -f1 -d':') =~ ^[0-9]+$ ]] ; then return; fi
						if ! [[ $(echo "$check3" | grep -m1 -n "A user input a1-coefficient scaling factor has been recognized" | cut -f1 -d':') =~ ^[0-9]+$ ]] ; then return; fi
						if ! [[ $(echo "$check3" | grep -m1 -n "A user input s8-coefficient scaling factor has been recognized" | cut -f1 -d':') =~ ^[0-9]+$ ]] ; then return; fi
						if ! [[ $(echo "$check3" | grep -m1 -n "A user input a2-coefficient scaling factor has been recognized" | cut -f1 -d':') =~ ^[0-9]+$ ]] ; then return; fi
						if ! [[ $(grep -E -i -n -m1 "d3s6[ \t]+0.51320*$" $FILEPATH | cut -f1 -d':') =~ ^[0-9]+$ ]] ; then return; fi
						if ! [[ $(grep -E -i -n -m1 "d3s8[ \t]+0.0*$" $FILEPATH | cut -f1 -d':') =~ ^[0-9]+$ ]] ; then return; fi
						if ! [[ $(grep -E -i -n -m1 "d3a1[ \t]+0.440*$" $FILEPATH | cut -f1 -d':') =~ ^[0-9]+$ ]] ; then return; fi
						if ! [[ $(grep -E -i -n -m1 "d3a2[ \t]+3.60*$" $FILEPATH | cut -f1 -d':') =~ ^[0-9]+$ ]] ; then return; fi
						METH='revDSD-PBEP86-D4'

					}

					function find_methode { # gives the used Method
						if [ $PROGNAME = "Gaussian" ] 	### not yet finished
						then
							        TEST=`grep -m 1 "GINC-" $FILEPATH `
								        if [ -n "$TEST" ]
										        then
												                RAW=`grep -m 1 "GINC-" $FILEPATH | sed -e 's.\\\. .g'`
														                METH=` echo $RAW | awk '{print $5}'`
																                BASIS=`echo $RAW | awk '{print $6}'`
																		        fi

																			#### search for additive Dispersion correction considering GD2, GD3, GD3BJ
																			        unset DISPCORR
																				        for DISPKEY in GD2 GD3; do
																						                if grep -i -q "empiricaldispersion=$DISPKEY" $FILEPATH; then
																									                        DISPCORR=$DISPKEY
																												                fi
																														        done

																															        case $DISPCORR in
																																	                GD2) METH=$METH'-D2'
																																				                ;;
																																						                GD3)    if grep -i -q "empiricaldispersion=GD3BJ" $FILEPATH; then
																																									                                        METH=$METH'-D3(BJ)'
																																														                                else
																																																			                                        METH=$METH'-D3'
																																																								                                fi
																																																												                ;;
																																																														        esac
																																																														fi


																																																														if [ $PROGNAME = "ORCA" ]
																																																														then
																																																															        RAW=`grep "| " $FILEPATH  | grep "!"`
																																																																        METH=` echo $RAW | awk '{print $4}'`
																																																																	        BASIS=`grep "Your calculation utilizes the basis:" $FILEPATH | awk '{print $NF}'`
																																																																				if [ "$METH" = "RKS" ] ; then checkrevDSDPBEP86D4 ; fi
																																																																				#BASIS=`echo $RAW | awk '{print $5}'`
																																																																			fi

																																																																			METHBASIS="$METH"/"$BASIS"

																																																																			## alias
																																																																			if [ "$METHBASIS" = "PBEh-3c/def2-mSVP" ]; then METHBASIS='PBEh-3c'; fi

																																																																		}

																																																																		function find_energ {
																																																																			case "$PROGNAME" in
																																																																				        Gaussian)
																																																																						                TEST=`grep -m 1 -c "SCF Done:  " $FILEPATH`
																																																																								                if [ "$TEST" != 0 ]
																																																																											                        then
																																																																															                        ENERG_EL=`tac $FILEPATH | grep -m 1 "SCF Done:  " | awk '{print $5}'`
																																																																																		                fi
																																																																																				        ;;
																																																																																					        ORCA)
																																																																																							                TEST=`grep -m 1 -c "FINAL SINGLE POINT ENERGY" $FILEPATH`
																																																																																									                if [ "$TEST" != 0 ]
																																																																																												                        then
																																																																																																                        ENERG_EL=`tac $FILEPATH | grep -m 1 "FINAL SINGLE POINT ENERGY" | awk '{print $5}'`
																																																																																																			                fi
																																																																																																					        #       ENERG_EL=`tac $FILEPATH | grep -m 1 "FINAL SINGLE POINT ENERGY"  | awk '{print $5}'`
																																																																																																						        ;;
																																																																																																							        xTB)
																																																																																																									                ENERG_EL=`grep "         | TOTAL ENERGY" $FILEPATH | awk '{print $4}'`
																																																																																																											        ;;
																																																																																																												        crest)
																																																																																																														                ENERG_EL=`tac $FILEPATH | grep -m 1 "E lowest       " | awk '{print $4}'`
																																																																																																																        ;;
																																																																																																															esac

																																																																																																														}

																																																																																																														function find_ther_corr { # finds the themal corrections to electronic Energy

																																																																																																															if [ $PROGNAME = "Gaussian" ]
																																																																																																															then
																																																																																																																TEST=`grep -c -i "Zero-point correction=" $FILEPATH `
																																																																																																																        if [ "$TEST" != "0" ]
																																																																																																																		        then

																																																																																																																				        TEST=`grep -m 1 -A 15 "Zero-point correction=" $FILEPATH`

																																																																																																																					        ZPVE=`       echo -e "$TEST"| grep "Zero-point correction=" | awk '{print $3}'`
																																																																																																																						        ENERG_THERM=`echo -e "$TEST"| grep "Thermal correction to Energy=" | awk '{print $5}'`
																																																																																																																							        ENTHALPY=`  echo -e "$TEST" | grep "Thermal correction to Enthalpy=" | awk '{print $5}'`
																																																																																																																								        GIBBS=`    echo  -e "$TEST" | grep "Thermal correction to Gibbs Free Energy=" | awk '{print $7}'`

																																																																																																																									        ### Grotvib neglects the translational contribution to entropy

																																																																																																																										        unset S_tot S_trans S_rotvib
																																																																																																																											        S_tot=$(echo "$TEST" | grep "Total" | awk '{print $NF}')
																																																																																																																												        S_trans=$(echo "$TEST" | grep "Translational" | awk '{print $NF}')
																																																																																																																													        S_rotvib=$(echo $S_tot-$S_trans | bc -l)
																																																																																																																														        Grotvib=$(echo "($ENTHALPY-(298.15*(($S_rotvib)/(1000*627.5095))))" | sed 's/--/+/' | bc -l | xargs printf "%.*f\n" 6)

																																																																																																																															        # version discarded to enhance readability
																																																																																																																																#       RAW=`grep -A 8 "Zero-point correction=" $FILEPATH| awk 'NF>1{print $NF}'`
																																																																																																																																#       RAWARRAY=($RAW)
																																																																																																																																#
																																																																																																																																#       ENERG_THERM=${RAWARRAY[1]}
																																																																																																																																#       ENTHALPY=${RAWARRAY[2]}
																																																																																																																																#       GIBBS=${RAWARRAY[3]}
																																																																																																																																        fi
																																																																																																																																fi


																																																																																																																																if [ $PROGNAME = "ORCA" ]
																																																																																																																																then
																																																																																																																																	TEST1=`grep -c "Analytical frequency calculation" $FILEPATH `
																																																																																																																																	TEST2=`grep -c "ORCA NUMERICAL FREQUENCIES" $FILEPATH `
																																																																																																																																	        if [ "$TEST1" != "0" ] || [ "$TEST2" != "0" ]
																																																																																																																																			        then

																																																																																																																																					        thermoline=$(tac $FILEPATH | grep -n -i -m1 "thermochemistry" | cut -f1 -d':')
																																																																																																																																						        THERMOSECTION=$(tac $FILEPATH | sed -n 1,"$thermoline"p | tac)

																																																																																																																																							                # the Following Correctiosn can be found directly in the output. analogous to the Corrections found in Gaussian outputs
																																																																																																																																									        ZPVE=$(echo "$THERMOSECTION" | grep "Zero point energy" | awk '{print $5}')
																																																																																																																																										        ENERG_THERM=$(echo "$THERMOSECTION" | grep "Total correction" | awk '{print $3}')
																																																																																																																																											        GIBBS=$(echo "$THERMOSECTION" | grep "G-E(el)" | awk '{print $3}')

																																																																																																																																												        # ORCA adds up the coorections subsequently to on another.
																																																																																																																																													        # The "Thermal Enthalpy correction" has to be addet to the "Total correction"  (ZPVE + thermal correction)
																																																																																																																																														        # to yield the same correction as stated by gaussian (based on Electronic energy )
																																																																																																																																															        #[ORCA gives the enthalpy correction based on the Total free energy]
																																																																																																																																																        TOTALCORRECTION=$(echo "$THERMOSECTION" | grep "Total correction" | awk '{print $3}')
																																																																																																																																																	        ENTHALPYCORRECTION=$(echo "$THERMOSECTION" | grep "Thermal Enthalpy correction" | awk '{print $5}')
																																																																																																																																																		        ENTHALPY=$(echo $TOTALCORRECTION+$ENTHALPYCORRECTION | bc -l)
																																																																																																																																																			        TEST=$(echo $ENTHALPY | cut -c1)
																																																																																																																																																				        if [ $TEST = "." ]; then ENTHALPY=$(echo 0"$ENTHALPY"); fi

																																																																																																																																																					        fi
																																																																																																																																																					fi


																																																																																																																																																				}

																																																																																																																																																				function find_Nimag {

																																																																																																																																																					if [ $PROGNAME = "Gaussian" ]
																																																																																																																																																					then
																																																																																																																																																						        TEST=`grep -i -m 1 "Frequencies" $FILEPATH`
																																																																																																																																																							        #TEST=`grep -i -m 1 "imaginary frequencies (negative Signs" $FILEPATH`
																																																																																																																																																								        if [ -z "$TEST" ]
																																																																																																																																																										        then
																																																																																																																																																												                IMAG="-"
																																																																																																																																																														        else
																																																																																																																																																																                IMAG=`grep -i -m 1 "imaginary frequencies (negative Signs" $FILEPATH | awk '{print $2}'`
																																																																																																																																																																		                if [[ -z $IMAG ]] ; then IMAG=0 ; fi
																																																																																																																																																																				        fi
																																																																																																																																																																				fi

																																																																																																																																																																				if [ $PROGNAME = "ORCA" ]
																																																																																																																																																																				then
																																																																																																																																																																					        TEST=`grep -i -m 1 "FREQUENCIES" $FILEPATH`
																																																																																																																																																																						        if [ -z "$TEST" ]; then
																																																																																																																																																																								                IMAG="-"
																																																																																																																																																																										        else
																																																																																																																																																																												                freqline=$(tac $FILEPATH | grep -n -i -m1 "FREQUENCIES" | cut -f1 -d':')
																																																																																																																																																																														                FREQSECTION=$(tac $FILEPATH | sed -n 1,"$freqline"p | tac)
																																																																																																																																																																																                IMAG=$(echo "$FREQSECTION" | grep -c  "imaginary mode")
																																																																																																																																																																																		        fi
																																																																																																																																																																																		fi


																																																																																																																																																																																	}

																																																																																																																																																																																	function find_NTerm {

																																																																																																																																																																																		case "$PROGNAME" in
																																																																																																																																																																																			        Gaussian)
																																																																																																																																																																																					        NTERM=`grep -c "Normal termination of Gaussian" $FILEPATH`
																																																																																																																																																																																						        ;;
																																																																																																																																																																																							        ORCA)
																																																																																																																																																																																									        NTERM=`grep -c "ORCA TERMINATED NORMALLY" $FILEPATH`
																																																																																																																																																																																										#<<<<<<< HEAD
																																																																																																																																																																																										#fi

																																																																																																																																																																																										#=======
																																																																																																																																																																																										        ;;
																																																																																																																																																																																											        xTB)
																																																																																																																																																																																													        NTERM=`grep -c "finished run"  $FILEPATH `
																																																																																																																																																																																														        ;;
																																																																																																																																																																																															        crest)
																																																																																																																																																																																																	        NTERM=`grep -c " CREST terminated normally." $FILEPATH`
																																																																																																																																																																																																		        NUMOFCONFORMERS=`grep "number of unique conformers for further calc" $FILEPATH | awk '{print $8}'`
																																																																																																																																																																																																			        NOTES+="confs_found:$NUMOFCONFORMERS"
																																																																																																																																																																																																				        ;;
																																																																																																																																																																																																			esac
																																																																																																																																																																																																			#>>>>>>> 2febef4b09fdb6c773c59d46f633fe286336320b

																																																																																																																																																																																																		}

																																																																																																																																																																																																		function find_charge {

																																																																																																																																																																																																			if [ $PROGNAME = "Gaussian" ]
																																																																																																																																																																																																				        then
																																																																																																																																																																																																						        CHARGE=`grep -m 1 "Charge =" $FILEPATH | awk '{print $3}'`
																																																																																																																																																																																																							        MULITPL=`grep -m 1 "Charge =" $FILEPATH | awk '{print $6}'`

																																																																																																																																																																																																							fi

																																																																																																																																																																																																							if [ $PROGNAME = "ORCA" ]
																																																																																																																																																																																																								        then
																																																																																																																																																																																																										        CHARGE=`grep -m 1 "Total Charge" $FILEPATH | awk '{print $NF}'`
																																																																																																																																																																																																											        MULITPL=`grep -m 1 "Multiplicity" $FILEPATH | awk '{print $NF}'`
																																																																																																																																																																																																											fi
																																																																																																																																																																																																										}

																																																																																																																																																																																																										function find_version {

																																																																																																																																																																																																											case "$PROGNAME" in
																																																																																																																																																																																																												        Gaussina)
																																																																																																																																																																																																														        RAW=`grep -m 1 -A 2 "Cite this work as:" $FILEPATH`
																																																																																																																																																																																																															        PROG=`echo $RAW | awk '{print $5 $6}' | sed 's/,//g'`
																																																																																																																																																																																																																        REV=`echo $RAW | awk '{print $8}' | sed 's/,//g'`
																																																																																																																																																																																																																	        ;;
																																																																																																																																																																																																																		        ORCA)
																																																																																																																																																																																																																				        RAW=`grep "Program Version" $FILEPATH`
																																																																																																																																																																																																																					        REV=`echo $RAW | awk '{print $3}'`
																																																																																																																																																																																																																						        PROG_RAW=`echo $REV | sed 's@\.@ @g' | awk '{print $1}'`
																																																																																																																																																																																																																							        PROG=`echo " $PROGNAME $PROG_RAW "`
																																																																																																																																																																																																																								        ;;
																																																																																																																																																																																																																									        xTB)
																																																																																																																																																																																																																											        PROG=`grep " xtb version" $FILEPATH  | awk '{print "xTB " $4}'`
																																																																																																																																																																																																																												        ;;
																																																																																																																																																																																																																													        crest)
																																																																																																																																																																																																																															        PROG=`grep "Version" $FILEPATH  | awk '{print "crest" $2}'`
																																																																																																																																																																																																																																        ;;
																																																																																																																																																																																																																															esac


																																																																																																																																																																																																																														}

																																																																																																																																																																																																																														function find_runtime {

																																																																																																																																																																																																																															case "$PROGNAME" in
																																																																																																																																																																																																																																        Gaussian)
																																																																																																																																																																																																																																		        TEMP=`tail -n 7 $FILEPATH `
																																																																																																																																																																																																																																			        RUNTIME=`echo "$TEMP" | grep "Elapsed time" | awk '{print $3":"$5":"$7":" $9}'`

																																																																																																																																																																																																																																				        NT=`echo "$TEMP" | grep -c "Normal termination of Gaussian" `
																																																																																																																																																																																																																																					        ET=`echo "$TEMP" | grep -c "Error termination request processed"`

																																																																																																																																																																																																																																						        if [ "$NT" = "1" ]
																																																																																																																																																																																																																																								                then
																																																																																																																																																																																																																																											                JOBSTATE="F-NT"
																																																																																																																																																																																																																																													                elif [ "$ET" = "1" ]
																																																																																																																																																																																																																																																                then
																																																																																																																																																																																																																																																			                JOBSTATE="F-ET"
																																																																																																																																																																																																																																																					                NOTES+="Error_termination"
																																																																																																																																																																																																																																																							                else
																																																																																																																																																																																																																																																										                JOBSTATE="unknown"
																																																																																																																																																																																																																																																												                NOTES+="Job_running_or_crashed"
																																																																																																																																																																																																																																																														        fi
																																																																																																																																																																																																																																																															        ;;
																																																																																																																																																																																																																																																																        ORCA)
																																																																																																																																																																																																																																																																		        TEMP=`tail -n 7 $FILEPATH `
																																																																																																																																																																																																																																																																			        RUNTIME=`echo "$TEMP" | grep "TOTAL RUN TIME:" | awk '{print $4 ":" $6 ":" $8 ":" $10 "." $12}'`

																																																																																																																																																																																																																																																																				        NT=`echo "$TEMP" | grep -c "ORCA TERMINATED NORMALLY" `
																																																																																																																																																																																																																																																																					        #ET=`echo "$TEMP" | grep -c "Error termination request processed"`
																																																																																																																																																																																																																																																																						        #had no examples at hand: inserted for later fix
																																																																																																																																																																																																																																																																							        if [ "$NT" = "1" ]
																																																																																																																																																																																																																																																																									                then
																																																																																																																																																																																																																																																																												                JOBSTATE="F-NT"
																																																																																																																																																																																																																																																																														                elif [ "$ET" = "1" ]
																																																																																																																																																																																																																																																																																	                then
																																																																																																																																																																																																																																																																																				                JOBSTATE="F-ET"
																																																																																																																																																																																																																																																																																						                NOTES+="Error_termination"
																																																																																																																																																																																																																																																																																								                else
																																																																																																																																																																																																																																																																																											                JOBSTATE="unknown"
																																																																																																																																																																																																																																																																																													                NOTES+="Job_running_or_crashed"
																																																																																																																																																																																																																																																																																															        fi
																																																																																																																																																																																																																																																																																																        ;;
																																																																																																																																																																																																																																																																																																	        xTB)
																																																																																																																																																																																																																																																																																																			        RUNTIME=`grep -m 1 " wall-time:" $FILEPATH | awk '{print $3 ":" $5 ":" $7 ":" $9 }'`
																																																																																																																																																																																																																																																																																																				        ;;
																																																																																																																																																																																																																																																																																																					        crest)
																																																																																																																																																																																																																																																																																																							        RUNTIME=`grep "Overall wall time" $FILEPATH | awk '{print $4 $5 $6}'`
																																																																																																																																																																																																																																																																																																								        ;;

																																																																																																																																																																																																																																																																																																								esac
																																																																																																																																																																																																																																																																																																							}

																																																																																																																																																																																																																																																																																																							function find_Nimag_string { # MIN or TS or higher-order saddlepoint (HOS)

																																																																																																																																																																																																																																																																																																								find_Nimag
																																																																																																																																																																																																																																																																																																								unset IMAGSTRING
																																																																																																																																																																																																																																																																																																								case $IMAG in 
																																																																																																																																																																																																																																																																																																										-)	IMAGSTRING=$IMAG
																																																																																																																																																																																																																																																																																																												;;
																																																																																																																																																																																																																																																																																																													0) IMAGSTRING=MIN
																																																																																																																																																																																																																																																																																																															;;
																																																																																																																																																																																																																																																																																																																1) IMAGSTRING=TS
																																																																																																																																																																																																																																																																																																																		;;
																																																																																																																																																																																																																																																																																																																			*) if [[ $IMAG =~ ^-?[0-9]+$ ]] ; then IMAGSTRING=HOS; else IMAGSTRING=ERROR ; fi
																																																																																																																																																																																																																																																																																																																					;;
																																																																																																																																																																																																																																																																																																																			esac

																																																																																																																																																																																																																																																																																																																		}

																																																																																																																																																																																																																																																																																																																		function reset_vars { # set all variables to NA to resolve issues in console output
																																																																																																																																																																																																																																																																																																																			NA="-"

																																																																																																																																																																																																																																																																																																																			METH="$NA"
																																																																																																																																																																																																																																																																																																																			BASIS="$NA"
																																																																																																																																																																																																																																																																																																																			ENERG_EL="$NA"
																																																																																																																																																																																																																																																																																																																			ZPVE="$NA"
																																																																																																																																																																																																																																																																																																																			ENERG_THERM="$NA"
																																																																																																																																																																																																																																																																																																																			ENTHALPY="$NA"
																																																																																																																																																																																																																																																																																																																			GIBBS="$NA"
																																																																																																																																																																																																																																																																																																																			IMAG="$NA"
																																																																																																																																																																																																																																																																																																																			NTERM="$NA"
																																																																																																																																																																																																																																																																																																																			PROG="$NA"
																																																																																																																																																																																																																																																																																																																			REV="$NA"
																																																																																																																																																																																																																																																																																																																			RUNTIME="$NA"
																																																																																																																																																																																																																																																																																																																			NTERM="$NA"
																																																																																																																																																																																																																																																																																																																			IMAG="$NA"
																																																																																																																																																																																																																																																																																																																			Gsolv="$NA"
																																																																																																																																																																																																																																																																																																																			SOLVENT="$NA"
																																																																																																																																																																																																																																																																																																																			Grotvib="$NA"
																																																																																																																																																																																																																																																																																																																			NUMOFCONFORMERS="$NA"
																																																																																																																																																																																																																																																																																																																		}

																																																																																																																																																																																																																																																																																																																		######################################################
																																																																																																																																																																																																																																																																																																																		#           FUNCTIONS END
																																																																																																																																																																																																																																																																																																																		######################################################

																																																																																																																																																																																																																																																																																																																		######################################################
																																																																																																																																																																																																																																																																																																																		#           OPTIONAL ARGUMENTS
																																																																																																																																																																																																																																																																																																																		######################################################

																																																																																																																																																																																																																																																																																																																		while getopts ":hf:" OPTION; do      # read variables
																																																																																																																																																																																																																																																																																																																			  case $OPTION in
																																																																																																																																																																																																																																																																																																																				      h)
																																																																																																																																																																																																																																																																																																																					              echo "Help-File does not exist. Ask me."
																																																																																																																																																																																																																																																																																																																						              exit
																																																																																																																																																																																																																																																																																																																							              ;;
																																																																																																																																																																																																																																																																																																																								        #      d)
																																																																																																																																																																																																																																																																																																																										   #     CSVDELIM=$OPTARG
																																																																																																																																																																																																																																																																																																																										       #    ;;
																																																																																																																																																																																																																																																																																																																									       #        s)
																																																																																																																																																																																																																																																																																																																										        #       DECISEP=$OPTARG
																																																																																																																																																																																																																																																																																																																											  #      ;;
																																																																																																																																																																																																																																																																																																																											   #       c)
																																																																																																																																																																																																																																																																																																																												     #      DEPTH=1
																																																																																																																																																																																																																																																																																																																												        #     echo "... searching in only the current folder"
																																																																																																																																																																																																																																																																																																																													    #    ;;
																																																																																																																																																																																																																																																																																																																													         #   n)
																																																																																																																																																																																																																																																																																																																															       #  DEPTH=$OPTARG; echo "... searching in this and $DEPTH subfolder(s)"; DEPTH=$((DEPTH+1))
																																																																																																																																																																																																																																																																																																																															              # ;;
																																																																																																																																																																																																																																																																																																																																       #       v)
																																																																																																																																																																																																																																																																																																																																	         #      VERBOSITY=$OPTARG # either 1,2,3,... (default: 0)
																																																																																																																																																																																																																																																																																																																																		    #     ;;
																																																																																																																																																																																																																																																																																																																																	    #        i)
																																																																																																																																																																																																																																																																																																																																		     #       SI_vers=$OPTARG
																																																																																																																																																																																																																																																																																																																																		       #      ;;
																																																																																																																																																																																																																																																																																																																																		               f)
																																																																																																																																																																																																																																																																																																																																				               VARFILE=$OPTARG
																																																																																																																																																																																																																																																																																																																																					               ;;
																																																																																																																																																																																																																																																																																																																																						           \?)
																																																																																																																																																																																																																																																																																																																																								           prnt_error
																																																																																																																																																																																																																																																																																																																																									       echo "Invalid option: -$OPTARG" >&2
																																																																																																																																																																																																																																																																																																																																									               exit
																																																																																																																																																																																																																																																																																																																																										           ;;
																																																																																																																																																																																																																																																																																																																																											     esac
																																																																																																																																																																																																																																																																																																																																										     done

																																																																																																																																																																																																																																																																																																																																										     #############################################################


																																																																																																																																																																																																																																																																																																																																										     #DEFINE OUTPUT-FILES IN THE CURRENT DIRECTORY
																																																																																																																																																																																																																																																																																																																																										      case $VARFILE in
																																																																																																																																																																																																																																																																																																																																											               all)
																																																																																																																																																																																																																																																																																																																																													                      #         if [ -z $DEPTH ]; then DEPTH=1000; echo "... searching in all subfolders"; fi
																																																																																																																																																																																																																																																																																																																																															                 #             if [ "$VERBOSITY" -ne 2 ]; then
																																																																																																																																																																																																																																																																																																																																																	             #                    LIST=`find -maxdepth $DEPTH ! -name 'slurm*.out' -name "*.out"`
																																																																																																																																																																																																																																																																																																																																																		                  #           else
[...]
																																																																																																																																																																																																																																																																																																																																																																																																																																																																																																																																																		if [[ -z $linenumoptfreq ]]; then linenumoptfreq=$(cat $TEMPDATA | cut -f"$index_FILENAME" -d';' | grep -n -E "^${OPTFREQARR[$i]}\$" | cut -f1 -d':'); fi
																																																																																																																																																																																																																																																																																																																																																																																																																																																																																																																																																				if [[ ! -z $linenumoptfreq && ! -z $G_solv_kcal && ! -z $SOLVENT ]]; then ## appending SMD-data to OPTFREQ-data
																																																																																																																																																																																																																																																																																																																																																																																																																																																																																																																																																								sed -i ""$linenumoptfreq"s/$/;"$G_solv_kcal";"$SOLVENT"/" $TEMPDATA
																																																																																																																																																																																																																																																																																																																																																																																																																																																																																																																																																										fi
																																																																																																																																																																																																																																																																																																																																																																																																																																																																																																																																																											fi
																																																																																																																																																																																																																																																																																																																																																																																																																																																																																																																																																												
																																																																																																																																																																																																																																																																																																																																																																																																																																																																																																																																																												if [[ ! -z $energyspe && ! -z $mergedlevel && ! -z $linenumoptfreq ]] ; then #### merging SPE and OPTFREQ data
																																																																																																																																																																																																																																																																																																																																																																																																																																																																																																																																																															sed -n "$linenumoptfreq"p $TEMPDATA | awk -F';' -vOFS=';' -v energyreplace=$energyspe -v levelreplace=$mergedlevel -v indexE=$index_ENERG_EL -v indexLEVEL=$index_METHBASIS '{$indexE=energyreplace}{$indexLEVEL=levelreplace}1;' >> $TEMPDATA2
																																																																																																																																																																																																																																																																																																																																																																																																																																																																																																																																																																	if (( $linenumoptfreq < $linenumspe )) ; then 
																																																																																																																																																																																																																																																																																																																																																																																																																																																																																																																																																																					sed -i "$linenumspe"d $TEMPDATA
																																																																																																																																																																																																																																																																																																																																																																																																																																																																																																																																																																								sed -i "$linenumoptfreq"d $TEMPDATA
																																																																																																																																																																																																																																																																																																																																																																																																																																																																																																																																																																										else
																																																																																																																																																																																																																																																																																																																																																																																																																																																																																																																																																																														sed -i "$linenumoptfreq"d $TEMPDATA
																																																																																																																																																																																																																																																																																																																																																																																																																																																																																																																																																																																	sed -i "$linenumspe"d $TEMPDATA
																																																																																																																																																																																																																																																																																																																																																																																																																																																																																																																																																																																			fi
																																																																																																																																																																																																																																																																																																																																																																																																																																																																																																																																																																																				fi
																																																																																																																																																																																																																																																																																																																																																																																																																																																																																																																																																																																			done
																																																																																																																																																																																																																																																																																																																																																																																																																																																																																																																																																																																			echo "Merging Done"
																																																																																																																																																																																																																																																																																																																																																																																																																																																																																																																																																																																			cat $TEMPDATA2 >> $TEMPDATA
																																																																																																																																																																																																																																																																																																																																																																																																																																																																																																																																																																																			rm $TEMPDATA2
																																																																																																																																																																																																																																																																																																																																																																																																																																																																																																																																																																																			#	cat $TEMPDATA

																																																																																																																																																																																																																																																																																																																																																																																																																																																																																																																																																																																			##################### GENERATE OUTPUT
																																																																																																																																																																																																																																																																																																																																																																																																																																																																																																																																																																																			echo "$TABLEHEAD" > $CSVFILEFILEPATH
																																																																																																																																																																																																																																																																																																																																																																																																																																																																																																																																																																																			cat $TEMPDATA >> $CSVFILEFILEPATH
																																																																																																																																																																																																																																																																																																																																																																																																																																																																																																																																																																																			rm $TEMPDATA
																																																																																																																																																																																																																																																																																																																																																																																																																																																																																																																																																																																			echo "Find energies for PES here: $CSVFILEFILEPATH"
																																																																																																																																																																																																																																																																																																																																																																																																																																																																																																																																																																																			echo "Find info about merged files here: $MERGEAPPENDIX"

																																																																																																																																																																																																																																																																																																																																																																																																																																																																																																																																																																																			######## CONSOLE OUTPUT
																																																																																																																																																																																																																																																																																																																																																																																																																																																																																																																																																																																			#TABLEHEAD="File;Stationary Point;E(el);ZPVE;H_corr;G_corr;Level of Theory;G_solv;Solvent"

																																																																																																																																																																																																																																																																																																																																																																																																																																																																																																																																																																																			#echo         "      FILENAME                | M/T |    E(el)   | H_corr | G_corr | G_solv |   Solvent    |  Level   "
																																																																																																																																																																																																																																																																																																																																																																																																																																																																																																																																																																																			 #       echo "------------------------------+-----+------------+--------+--------+--------+--------------+--------- "
																																																																																																																																																																																																																																																																																																																																																																																																																																																																																																																																																																																			         #     open-sMe-gemdimethyl_conf1    | MIN | -1234.0001 | 0.0001 | 0.0001 | -100.0 |   Benzene    | OPTFREQ               





